*** Data Input***

SystemName			Water_molecule
SystemLabel			h20

NumberOfSpecies		4
NumberOfAtoms		77

%block ChemicalSpeciesLabel
1  C  6
2 Co 27
3  H  1
4  N  7
%endblock ChemicalSpeciesLabel

AtomicCoordinatesFormat	Ang

%block AtomicCoordinatesAndAtomicSpecies
 4.16626 -0.66971  0.35220  1
 4.15923  0.68716  0.38502  2
 2.79835  1.10248  0.16468  3
 2.80892 -1.08643  0.12104  4
 2.41514  2.43496  0.04381  5
 3.47341  3.49593  0.07498  6
 2.43873 -2.42319 -0.03831  7
 3.52229 -3.45761 -0.04774  8
 3.51930 -4.54626  0.83960  9
 3.49111  4.47454  1.08204 10
 4.46772  3.54201 -0.91770 11
 1.10430 -2.81015 -0.16710 12
 4.57490 -3.35440 -0.97403 13
 4.47466  5.46400  1.09914 14
 5.45210  4.53047 -0.89860 15
 5.45821  5.49348  0.11055 16
 5.59603 -4.30367 -1.00608 17
 0.68856 -4.16088 -0.42191 18
 4.53812 -5.49869  0.80256 19
 5.57934 -5.37987 -0.11839 20
-0.66872 -4.16258 -0.41375 21
-1.08623 -2.81223 -0.15013 22
 1.08080  2.81218 -0.10509 23
-1.11177  2.80414 -0.16454 24
 0.66570  4.16535 -0.35881 25
-2.45283  2.41804 -0.02331 26
-3.52823  3.46551 -0.06619 27
-0.69045  4.15786 -0.40351 28
-4.47090  3.47413 -1.11040 29
-2.81893  1.08231  0.17133 30
-2.80464 -1.11024  0.20812 31
-3.62348  4.45519  0.92451 32
-4.14845 -0.69641  0.50264 33
-4.15812  0.65981  0.47599 34
-4.62707  5.42469  0.87387 35
-2.42188 -2.44111  0.03723 36
-3.51433 -4.46713  1.08019 37
-3.47593 -3.50918  0.05429 38
-5.47168  4.44395 -1.16155 39
-5.55153  5.42263 -0.16952 40
-4.44948 -3.57364 -0.95752 41
-4.49606 -5.45917  1.09542 42
-5.42792 -4.56809 -0.94439 43
-5.45368 -5.51313  0.08241 44
 4.98728  1.35533  0.56561 45
 4.99996 -1.34049  0.50095 46
 2.73387  4.44947  1.85904 47
 4.45277  2.80403 -1.71340 48
 4.47267  6.21260  1.88720 49
 4.58248 -2.51937 -1.67006 50
 6.22462  6.26423  0.12510 51
 6.21293  4.55017 -1.67461 52
 2.71700 -4.63876  1.56528 53
 6.40305 -4.20350 -1.72737 54
 1.35692 -4.98748 -0.60359 55
-1.33795 -4.99072 -0.59339 56
 6.37325 -6.12193 -0.14429 57
 4.51838 -6.33372  1.49827 58
-1.35666  4.98425 -0.59765 59
 1.33562  4.99655 -0.51336 60
-4.98059  1.32839  0.67734 61
-4.96456 -1.36937  0.71824 62
-2.91935  4.44864  1.74990 63
-4.40495  2.71813 -1.88613 64
-4.68614  6.18177  1.65147 65
-6.33273  6.17752 -0.20789 66
-6.19126  4.43585 -1.97613 67
-2.77777 -4.41988  1.87588 68
-4.42539 -2.84400 -1.76125 69
-4.51159 -6.19110  1.89864 70
-6.17081 -4.60543 -1.73693 71
-6.21727 -6.28662  0.09396 72
 1.96690  0.00509  0.03332 73
 0.01113 -1.97433 -0.04033 74
-1.97739 -0.00919  0.05356 75
-0.01365  1.97131 -0.02348 76
-0.00474 -0.00174  0.00739 77
%endblock AtomicCoordinatesAndAtomicSpecies
