*** Data Input***

SystemName			Water_molecule
SystemLabel			h20

NumberOfSpecies		4
NumberOfAtoms		77

%block ChemicalSpeciesLabel
1 \t  C \t  6
2 \t Co \t 27
3 \t  H \t  1
4 \t  N \t  7
%endblock ChemicalSpeciesLabel

AtomicCoordinatesFormat	Ang

%block AtomicCoordinatesAndAtomicSpecies
\t  4.16626 \t -0.66971 \t  0.35220 \t  1
\t  4.15923 \t  0.68716 \t  0.38502 \t  2
\t  2.79835 \t  1.10248 \t  0.16468 \t  3
\t  2.80892 \t -1.08643 \t  0.12104 \t  4
\t  2.41514 \t  2.43496 \t  0.04381 \t  5
\t  3.47341 \t  3.49593 \t  0.07498 \t  6
\t  2.43873 \t -2.42319 \t -0.03831 \t  7
\t  3.52229 \t -3.45761 \t -0.04774 \t  8
\t  3.51930 \t -4.54626 \t  0.83960 \t  9
\t  3.49111 \t  4.47454 \t  1.08204 \t 10
\t  4.46772 \t  3.54201 \t -0.91770 \t 11
\t  1.10430 \t -2.81015 \t -0.16710 \t 12
\t  4.57490 \t -3.35440 \t -0.97403 \t 13
\t  4.47466 \t  5.46400 \t  1.09914 \t 14
\t  5.45210 \t  4.53047 \t -0.89860 \t 15
\t  5.45821 \t  5.49348 \t  0.11055 \t 16
\t  5.59603 \t -4.30367 \t -1.00608 \t 17
\t  0.68856 \t -4.16088 \t -0.42191 \t 18
\t  4.53812 \t -5.49869 \t  0.80256 \t 19
\t  5.57934 \t -5.37987 \t -0.11839 \t 20
\t -0.66872 \t -4.16258 \t -0.41375 \t 21
\t -1.08623 \t -2.81223 \t -0.15013 \t 22
\t  1.08080 \t  2.81218 \t -0.10509 \t 23
\t -1.11177 \t  2.80414 \t -0.16454 \t 24
\t  0.66570 \t  4.16535 \t -0.35881 \t 25
\t -2.45283 \t  2.41804 \t -0.02331 \t 26
\t -3.52823 \t  3.46551 \t -0.06619 \t 27
\t -0.69045 \t  4.15786 \t -0.40351 \t 28
\t -4.47090 \t  3.47413 \t -1.11040 \t 29
\t -2.81893 \t  1.08231 \t  0.17133 \t 30
\t -2.80464 \t -1.11024 \t  0.20812 \t 31
\t -3.62348 \t  4.45519 \t  0.92451 \t 32
\t -4.14845 \t -0.69641 \t  0.50264 \t 33
\t -4.15812 \t  0.65981 \t  0.47599 \t 34
\t -4.62707 \t  5.42469 \t  0.87387 \t 35
\t -2.42188 \t -2.44111 \t  0.03723 \t 36
\t -3.51433 \t -4.46713 \t  1.08019 \t 37
\t -3.47593 \t -3.50918 \t  0.05429 \t 38
\t -5.47168 \t  4.44395 \t -1.16155 \t 39
\t -5.55153 \t  5.42263 \t -0.16952 \t 40
\t -4.44948 \t -3.57364 \t -0.95752 \t 41
\t -4.49606 \t -5.45917 \t  1.09542 \t 42
\t -5.42792 \t -4.56809 \t -0.94439 \t 43
\t -5.45368 \t -5.51313 \t  0.08241 \t 44
\t  4.98728 \t  1.35533 \t  0.56561 \t 45
\t  4.99996 \t -1.34049 \t  0.50095 \t 46
\t  2.73387 \t  4.44947 \t  1.85904 \t 47
\t  4.45277 \t  2.80403 \t -1.71340 \t 48
\t  4.47267 \t  6.21260 \t  1.88720 \t 49
\t  4.58248 \t -2.51937 \t -1.67006 \t 50
\t  6.22462 \t  6.26423 \t  0.12510 \t 51
\t  6.21293 \t  4.55017 \t -1.67461 \t 52
\t  2.71700 \t -4.63876 \t  1.56528 \t 53
\t  6.40305 \t -4.20350 \t -1.72737 \t 54
\t  1.35692 \t -4.98748 \t -0.60359 \t 55
\t -1.33795 \t -4.99072 \t -0.59339 \t 56
\t  6.37325 \t -6.12193 \t -0.14429 \t 57
\t  4.51838 \t -6.33372 \t  1.49827 \t 58
\t -1.35666 \t  4.98425 \t -0.59765 \t 59
\t  1.33562 \t  4.99655 \t -0.51336 \t 60
\t -4.98059 \t  1.32839 \t  0.67734 \t 61
\t -4.96456 \t -1.36937 \t  0.71824 \t 62
\t -2.91935 \t  4.44864 \t  1.74990 \t 63
\t -4.40495 \t  2.71813 \t -1.88613 \t 64
\t -4.68614 \t  6.18177 \t  1.65147 \t 65
\t -6.33273 \t  6.17752 \t -0.20789 \t 66
\t -6.19126 \t  4.43585 \t -1.97613 \t 67
\t -2.77777 \t -4.41988 \t  1.87588 \t 68
\t -4.42539 \t -2.84400 \t -1.76125 \t 69
\t -4.51159 \t -6.19110 \t  1.89864 \t 70
\t -6.17081 \t -4.60543 \t -1.73693 \t 71
\t -6.21727 \t -6.28662 \t  0.09396 \t 72
\t  1.96690 \t  0.00509 \t  0.03332 \t 73
\t  0.01113 \t -1.97433 \t -0.04033 \t 74
\t -1.97739 \t -0.00919 \t  0.05356 \t 75
\t -0.01365 \t  1.97131 \t -0.02348 \t 76
\t -0.00474 \t -0.00174 \t  0.00739 \t 77
%endblock AtomicCoordinatesAndAtomicSpecies
