*** Data Input***
SystemName			Water_molecule
SystemLabel			h20
NumberOfSpecies		4
NumberOfAtoms		77
%block ChemicalSpeciesLabel
0   C   6
1  Co  27
2   H   1
3   N   7
%endblock ChemicalSpeciesLabel
AtomicCoordinatesFormat	Ang
%block AtomicCoordinatesAndAtomicSpecies
 4.16626 -0.66971  0.35220
 4.15923  0.68716  0.38502
 2.79835  1.10248  0.16468
 2.80892 -1.08643  0.12104
 2.41514  2.43496  0.04381
 3.47341  3.49593  0.07498
 2.43873 -2.42319 -0.03831
 3.52229 -3.45761 -0.04774
 3.51930 -4.54626  0.83960
 3.49111  4.47454  1.08204
 4.46772  3.54201 -0.91770
 1.10430 -2.81015 -0.16710
 4.57490 -3.35440 -0.97403
 4.47466  5.46400  1.09914
 5.45210  4.53047 -0.89860
 5.45821  5.49348  0.11055
 5.59603 -4.30367 -1.00608
 0.68856 -4.16088 -0.42191
 4.53812 -5.49869  0.80256
 5.57934 -5.37987 -0.11839
-0.66872 -4.16258 -0.41375
-1.08623 -2.81223 -0.15013
 1.08080  2.81218 -0.10509
-1.11177  2.80414 -0.16454
 0.66570  4.16535 -0.35881
-2.45283  2.41804 -0.02331
-3.52823  3.46551 -0.06619
-0.69045  4.15786 -0.40351
-4.47090  3.47413 -1.11040
-2.81893  1.08231  0.17133
-2.80464 -1.11024  0.20812
-3.62348  4.45519  0.92451
-4.14845 -0.69641  0.50264
-4.15812  0.65981  0.47599
-4.62707  5.42469  0.87387
-2.42188 -2.44111  0.03723
-3.51433 -4.46713  1.08019
-3.47593 -3.50918  0.05429
-5.47168  4.44395 -1.16155
-5.55153  5.42263 -0.16952
-4.44948 -3.57364 -0.95752
-4.49606 -5.45917  1.09542
-5.42792 -4.56809 -0.94439
-5.45368 -5.51313  0.08241
 4.98728  1.35533  0.56561
 4.99996 -1.34049  0.50095
 2.73387  4.44947  1.85904
 4.45277  2.80403 -1.71340
 4.47267  6.21260  1.88720
 4.58248 -2.51937 -1.67006
 6.22462  6.26423  0.12510
 6.21293  4.55017 -1.67461
 2.71700 -4.63876  1.56528
 6.40305 -4.20350 -1.72737
 1.35692 -4.98748 -0.60359
-1.33795 -4.99072 -0.59339
 6.37325 -6.12193 -0.14429
 4.51838 -6.33372  1.49827
-1.35666  4.98425 -0.59765
 1.33562  4.99655 -0.51336
-4.98059  1.32839  0.67734
-4.96456 -1.36937  0.71824
-2.91935  4.44864  1.74990
-4.40495  2.71813 -1.88613
-4.68614  6.18177  1.65147
-6.33273  6.17752 -0.20789
-6.19126  4.43585 -1.97613
-2.77777 -4.41988  1.87588
-4.42539 -2.84400 -1.76125
-4.51159 -6.19110  1.89864
-6.17081 -4.60543 -1.73693
-6.21727 -6.28662  0.09396
 1.96690  0.00509  0.03332
 0.01113 -1.97433 -0.04033
-1.97739 -0.00919  0.05356
-0.01365  1.97131 -0.02348
-0.00474 -0.00174  0.00739
%endblock AtomicCoordinatesAndAtomicSpecies
